8    
Iteration 0 Energy -661.28470482
C       -0.9451903303    0.0345480539   -0.0249933466
S        0.8118260260   -0.0795863263    0.0212108726
O        1.3101483002   -0.1743809781    1.4479925447
O        1.3209856960   -1.2622576726   -0.7250372962
O        1.5224171548    1.2935665429   -0.6465845151
H       -1.2232985351    1.1102905774   -0.0778391155
H       -1.3963032979   -0.5121255178   -0.8827290729
H       -1.4005850136   -0.4100546793    0.8879799343
8    
Iteration 1 Energy -661.33621138
C       -0.8868655010    0.0421919330   -0.0241549932
S        0.8744390554   -0.0748204855    0.0228982948
O        1.2000124113   -0.1547199093    1.4637837995
O        1.2162526041   -1.2719035420   -0.7540948690
O        1.3681777837    1.2587458956   -0.6338888212
H       -1.1573783294    1.1021533286   -0.0757392043
H       -1.3016746055   -0.4993423316   -0.8821085529
H       -1.3129634185   -0.4023048887    0.8833043515
8    
Iteration 2 Energy -661.31612790
C       -0.8930990069    0.0645334505   -0.0270971688
S        0.9039013037   -0.0430187634    0.0202496035
O        1.2195421957   -0.1062247318    1.4094940504
O        1.2061227157   -1.2346931303   -0.7215357836
O        1.2577670734    1.0729855107   -0.5799802548
H       -1.1785081385    1.1016777708   -0.0445916118
H       -1.2399654375   -0.4386847702   -0.9148521282
H       -1.2757607058   -0.4165753363    0.8583132985
8    
Iteration 3 Energy -661.35029377
C       -0.9035471813    0.0551787045   -0.0225830134
S        0.8949789115   -0.0541843498    0.0244072073
O        1.2190933535   -0.1246577811    1.4315185080
O        1.2042022469   -1.2600347171   -0.7158042424
O        1.3263741343    1.1597456202   -0.6280954348
H       -1.1874152278    1.0987963021   -0.0395365481
H       -1.2568039690   -0.4480056209   -0.9141815228
H       -1.2968822681   -0.4268381579    0.8642750515
8    
Iteration 4 Energy -661.35114605
C       -0.9056385325    0.0522111788   -0.0204122173
S        0.8930148285   -0.0508989146    0.0180340430
O        1.2213372880   -0.0965354862    1.4324743700
O        1.2051148206   -1.2763481756   -0.6974688533
O        1.3470164606    1.1539076544   -0.6478849981
H       -1.1933252464    1.1022378386   -0.0054832211
H       -1.2614991576   -0.4240843115   -0.9324986713
H       -1.3060204612   -0.4604897840    0.8532395535
8    
Iteration 5 Energy -661.35220593
C       -0.9034752289    0.0504486115   -0.0204779491
S        0.8912285362   -0.0498431395    0.0202677560
O        1.2296346960   -0.0353007888    1.4408595065
O        1.1977711388   -1.3085229621   -0.6477083349
O        1.3532118015    1.1284510509   -0.7049725626
H       -1.1987470838    1.0997397341    0.0760280434
H       -1.2591873945   -0.3520110140   -0.9726198037
H       -1.3104364653   -0.5329614921    0.8086233496
8    
Iteration 6 Energy -661.35344008
C       -0.8990889057    0.0500631690   -0.0192594111
S        0.8879793493   -0.0501959707    0.0157996134
O        1.2247367902    0.0550973733    1.4342511332
O        1.1911108319   -1.3549167759   -0.5634346871
O        1.3541876691    1.0861946941   -0.7839015040
H       -1.2010474442    1.0792690392    0.2005231089
H       -1.2485331863   -0.2352831812   -1.0150900225
H       -1.3093451044   -0.6302283478    0.7311117745
8    
Iteration 7 Energy -661.35418466
C       -0.8943846538    0.0500840821   -0.0210465967
S        0.8836643395   -0.0511959130    0.0233621982
O        1.2314501414    0.1832072746    1.4207641623
O        1.1780998219   -1.3985087215   -0.4468898648
O        1.3406582511    1.0038337660   -0.8874236183
H       -1.2005873328    1.0247008184    0.3649125882
H       -1.2325677456   -0.0648323532   -1.0530305269
H       -1.3063328217   -0.7472889534    0.5993516633
8    
Iteration 8 Energy -661.35448291
C       -0.8962674961    0.0517017537   -0.0208297316
S        0.8872732271   -0.0516850202    0.0203276666
O        1.2278852470    0.1577126914    1.4191496402
O        1.1835723171   -1.3904550841   -0.4654325540
O        1.3370524154    1.0169403391   -0.8663042862
H       -1.1999906613    1.0355353338    0.3355464532
H       -1.2331196816   -0.0952598265   -1.0462696862
H       -1.3064053676   -0.7244901872    0.6238125034
8    
Iteration 9 Energy -661.35453500
C       -0.8966483833    0.0519642102   -0.0212591276
S        0.8880052660   -0.0518551645    0.0214642423
O        1.2288058817    0.1550356557    1.4188935395
O        1.1839360101   -1.3871155396   -0.4699465899
O        1.3318154586    1.0154086217   -0.8608278272
H       -1.1975318234    1.0373160183    0.3305844798
H       -1.2314170913   -0.1001704305   -1.0460762139
H       -1.3069653184   -0.7205833713    0.6271675023
8    
Iteration 10 Energy -661.35453640
C       -0.8963164223    0.0519192078   -0.0211180086
S        0.8878593735   -0.0513398680    0.0208300236
O        1.2283449457    0.1576365945    1.4182177835
O        1.1833606672   -1.3882265656   -0.4667789037
O        1.3319499970    1.0136294803   -0.8632069775
H       -1.1977454387    1.0358687399    0.3345616964
H       -1.2307931216   -0.0962452412   -1.0466230237
H       -1.3066600008   -0.7232423476    0.6241174153
8    
Iteration 11 Energy -661.35453658
C       -0.8963254803    0.0519654014   -0.0211279736
S        0.8877286497   -0.0515594692    0.0209050457
O        1.2286192998    0.1580231013    1.4182769095
O        1.1836601443   -1.3884118051   -0.4669682337
O        1.3319115989    1.0133928741   -0.8630254020
H       -1.1979410615    1.0358978525    0.3346222231
H       -1.2309316619   -0.0960402896   -1.0466705123
H       -1.3067214890   -0.7232676653    0.6239879486
