13   
Iteration 0 Energy -322.18995740
C       -1.6535105375    0.0364318771   -0.5430154807
C       -1.0445571738    1.1871828043   -0.0895394829
C        0.2796831102    1.1435315953    0.3433913738
C        1.0111500207   -0.0145942788    0.3361360843
C        0.3883352357   -1.1598614167   -0.1207782318
C       -0.9273329596   -1.1356173427   -0.5550612739
C        2.3887072000   -0.0588802782    0.7867093282
N        3.4958345730   -0.0815134204    1.1323680729
H       -2.6802644807    0.0817410512   -0.8761979783
H       -1.6022580841    2.1132921633   -0.0746469492
H        0.7419656011    2.0374954814    0.6920796315
H        0.9772191673   -2.0832547948   -0.1246729497
H       -1.3749716671   -2.0659534411   -0.9067721442
13   
Iteration 1 Energy -322.18496045
C       -1.5697302781    0.0193475713   -0.5186574012
C       -1.0029895489    1.2082248558   -0.0710726487
C        0.3070883690    1.2481822468    0.3753949524
C        0.9253168929   -0.0017594217    0.3098320694
C        0.3926341440   -1.2217193195   -0.1327001820
C       -0.9184503316   -1.2084788019   -0.5678841215
C        2.2984628925   -0.0488355697    0.7554594658
N        3.3767180478   -0.0812813996    1.0958325071
H       -2.5975231702    0.0548123635   -0.8542195602
H       -1.5846413569    2.1195697441   -0.0674351092
H        0.7922078292    2.1493066727    0.7331850436
H        0.9797489014   -2.1284805137   -0.1337058118
H       -1.3988423858   -2.1088884282   -0.9240292037
13   
Iteration 2 Energy -322.19375647
C       -1.6158059362    0.0290678840   -0.5317580092
C       -1.0257528549    1.2029247191   -0.0797688937
C        0.2908743474    1.2000636577    0.3592986444
C        0.9794300319   -0.0148363380    0.3247158162
C        0.3966083421   -1.2045110619   -0.1278492599
C       -0.9194082153   -1.1750494292   -0.5608881652
C        2.3562064452   -0.0494656160    0.7740515511
N        3.4330254666   -0.0724070670    1.1174913105
H       -2.6439871738    0.0545108120   -0.8694173505
H       -1.5892087474    2.1260294566   -0.0673706765
H        0.7657907540    2.1066127013    0.7147757572
H        0.9630112844   -2.1228841337   -0.1383762969
H       -1.3907837388   -2.0800555849   -0.9149044275
13   
Iteration 3 Energy -322.19448244
C       -1.6329323619    0.0283493570   -0.5370494381
C       -1.0276150148    1.1910841113   -0.0828137469
C        0.2879089670    1.1792492128    0.3526922369
C        1.0012549282   -0.0138094389    0.3309772294
C        0.3874704871   -1.1769794692   -0.1260079925
C       -0.9268821524   -1.1660380984   -0.5613133050
C        2.3764428677   -0.0477058230    0.7805246381
N        3.4585936799   -0.0726107522    1.1294827115
H       -2.6605936633    0.0535268363   -0.8738827004
H       -1.5847756830    2.1177073694   -0.0670327782
H        0.7602929699    2.0833357593    0.7064548281
H        0.9535576970   -2.0989459919   -0.1377031999
H       -1.3927227161   -2.0771630725   -0.9143284830
13   
Iteration 4 Energy -322.19406364
C       -1.6379612378    0.0391840721   -0.5359427011
C       -1.0401094565    1.2066358390   -0.0835229016
C        0.2760362439    1.1606595751    0.3440385084
C        0.9990520597   -0.0289069353    0.3260612330
C        0.4066680741   -1.2038747391   -0.1261159348
C       -0.9097974529   -1.1431488586   -0.5505967472
C        2.3722266953   -0.0438918345    0.7790670074
N        3.4518266110   -0.0552240160    1.1337436978
H       -2.6651926395    0.0505750995   -0.8750939148
H       -1.5901387944    2.1376871069   -0.0641256469
H        0.7572411413    2.0598056353    0.6993991460
H        0.9644862175   -2.1311264828   -0.1419593553
H       -1.3843374564   -2.0483744616   -0.9049523912
13   
Iteration 5 Energy -322.19468067
C       -1.6346142668    0.0333410128   -0.5361080070
C       -1.0334117426    1.2004236233   -0.0826495281
C        0.2829141186    1.1732018230    0.3490732545
C        0.9995416551   -0.0216526975    0.3278241217
C        0.3982760683   -1.1943888232   -0.1268222136
C       -0.9182457502   -1.1564204514   -0.5562912332
C        2.3740963518   -0.0448433192    0.7794992090
N        3.4519217939   -0.0628310932    1.1320512059
H       -2.6622296583    0.0506006723   -0.8741229015
H       -1.5876980215    2.1288798607   -0.0652432395
H        0.7607558593    2.0755012427    0.7040044068
H        0.9588226207   -2.1186918866   -0.1411181218
H       -1.3901290230   -2.0631199637   -0.9100969532
13   
Iteration 6 Energy -322.19471826
C       -1.6319504310    0.0316870576   -0.5355015903
C       -1.0317997936    1.1989740169   -0.0824478619
C        0.2845067296    1.1769493148    0.3503853913
C        0.9989169160   -0.0192659451    0.3280076435
C        0.3953662831   -1.1901978913   -0.1269146570
C       -0.9210217801   -1.1611478069   -0.5582453706
C        2.3740057758   -0.0460748219    0.7790472291
N        3.4527380827   -0.0668244051    1.1318369641
H       -2.6597650892    0.0517619690   -0.8728423861
H       -1.5882210264    2.1262377398   -0.0660252960
H        0.7607925647    2.0800599283    0.7048949122
H        0.9577904855   -2.1134341776   -0.1404562742
H       -1.3913587118   -2.0687249785   -0.9117387039
13   
Iteration 7 Energy -322.19470847
C       -1.6353220020    0.0311079781   -0.5366788130
C       -1.0301028826    1.1956464141   -0.0825947036
C        0.2859891614    1.1785195401    0.3511097968
C        0.9995355458   -0.0185935578    0.3282187985
C        0.3954093794   -1.1894479947   -0.1268450582
C       -0.9211898746   -1.1599149466   -0.5580211242
C        2.3746456169   -0.0460943191    0.7791064138
N        3.4527762135   -0.0675926858    1.1321520130
H       -2.6633067780    0.0515667077   -0.8738915296
H       -1.5861579272    2.1230417493   -0.0659773927
H        0.7612246079    2.0825732802    0.7054157755
H        0.9570357484   -2.1129332272   -0.1407695965
H       -1.3905368035   -2.0678789382   -0.9112245797
13   
Iteration 8 Energy -322.19472005
C       -1.6336932518    0.0314227162   -0.5361106995
C       -1.0310120867    1.1974222529   -0.0825173610
C        0.2851982644    1.1776253241    0.3507211055
C        0.9993345052   -0.0190137348    0.3281409675
C        0.3954650395   -1.1899735989   -0.1268738702
C       -0.9210664532   -1.1604668608   -0.5581067099
C        2.3744259316   -0.0460367490    0.7791000505
N        3.4526316573   -0.0670683707    1.1319552679
H       -2.6616056669    0.0516290207   -0.8734192706
H       -1.5871888264    2.1247686990   -0.0659774916
H        0.7610235145    2.0812138468    0.7051625058
H        0.9574347514   -2.1133351790   -0.1406129829
H       -1.3909473737   -2.0681873665   -0.9114615114
13   
Iteration 9 Energy -322.19472111
C       -1.6331163002    0.0316045370   -0.5358319833
C       -1.0315054560    1.1984228511   -0.0824510880
C        0.2847353554    1.1770737285    0.3503509766
C        0.9995246120   -0.0193741088    0.3280258910
C        0.3957096423   -1.1904917760   -0.1269989004
C       -0.9208837027   -1.1605924995   -0.5580624202
C        2.3745868135   -0.0458381955    0.7791329204
N        3.4524625404   -0.0665391560    1.1323395255
H       -2.6610009246    0.0513300427   -0.8731661650
H       -1.5875269014    2.1259055755   -0.0657867143
H        0.7608761085    2.0805620469    0.7048359882
H        0.9572773820   -2.1139720169   -0.1409374678
H       -1.3911391640   -2.0680910289   -0.9114505626
13   
Iteration 10 Energy -322.19472128
C       -1.6330925980    0.0315788479   -0.5358043230
C       -1.0314491418    1.1983027378   -0.0824574706
C        0.2847966180    1.1771511445    0.3503529091
C        0.9993644853   -0.0193001023    0.3279400540
C        0.3956779879   -1.1903419304   -0.1270126326
C       -0.9209221906   -1.1605589600   -0.5580664209
C        2.3744166557   -0.0458890186    0.7790471677
N        3.4525057063   -0.0666894166    1.1324519879
H       -2.6609757056    0.0514318776   -0.8730755096
H       -1.5875604170    2.1257335332   -0.0658225869
H        0.7609249184    2.0805604485    0.7047987748
H        0.9574279969   -2.1138198020   -0.1409085825
H       -1.3911143102   -2.0681593596   -0.9114433674
