11   
Iteration 0 Energy -705.27073528
C        1.2583995792    0.3337606660   -0.0544603679
C        0.1320223956    1.1273799638    0.0679655630
C       -1.1017938541    0.5082562587    0.1016740667
C       -1.1444606082   -0.8567570183    0.0122117378
N       -0.0572202070   -1.6420115537   -0.1072585532
C        1.1665106236   -1.0403511252   -0.1415258362
Cl      -2.5758328398    1.4765961499    0.2571622277
H        2.2301552141    0.8400544551   -0.0797409784
H        0.1974020019    2.2172116771    0.1374822608
H       -2.1491701983   -1.3068638877    0.0432920882
H        2.0439878931   -1.6572755804   -0.2368022139
11   
Iteration 1 Energy -705.26205169
C        1.3366765583    0.4108586786   -0.0540438242
C        0.1700504279    1.1474153138    0.0669968632
C       -1.0376097018    0.4651454362    0.0948409909
C       -1.1899638933   -0.9140377257    0.0111272639
N       -0.0916552833   -1.6145308098   -0.1032996029
C        1.0387184855   -0.9392844716   -0.1268886229
Cl      -2.4874767370    1.4101124443    0.2472640051
H        2.3306053615    0.8347454163   -0.0862461122
H        0.1973782317    2.2237289892    0.1379258026
H       -2.1479716735   -1.4141554857    0.0359896429
H        1.8812482240   -1.6099977803   -0.2236664116
11   
Iteration 2 Energy -705.27599046
C        1.2903029960    0.3778012818   -0.0534371219
C        0.1478750952    1.1589528692    0.0691315070
C       -1.0726716778    0.5072822039    0.0998279150
C       -1.1542509490   -0.8784861995    0.0113410644
N       -0.0723110317   -1.6128561516   -0.1043699931
C        1.0846499595   -0.9910360313   -0.1331887597
Cl      -2.5371696917    1.4331974204    0.2518605086
H        2.2774636158    0.8118065661   -0.0845430695
H        0.2027671026    2.2339749899    0.1382872464
H       -2.1049458335   -1.3890281170    0.0350529389
H        1.9382904147   -1.6516088265   -0.2299622412
11   
Iteration 3 Energy -705.27720560
C        1.2796229218    0.3612363506   -0.0539015113
C        0.1384589300    1.1353706525    0.0681152924
C       -1.0973117604    0.5180975649    0.1020643751
C       -1.1620172618   -0.8631990401    0.0128495196
N       -0.0658848763   -1.5906307823   -0.1032638264
C        1.1273929211   -1.0132953091   -0.1373085439
Cl      -2.5568351079    1.4494196180    0.2541574625
H        2.2622455142    0.8141000235   -0.0834547264
H        0.2037872576    2.2131967801    0.1368230483
H       -2.1224916470   -1.3669346481    0.0376167554
H        1.9930331087   -1.6573612047   -0.2336978505
11   
Iteration 4 Energy -705.27755138
C        1.2585692296    0.3576598995   -0.0528545420
C        0.1392078767    1.1641797159    0.0700134547
C       -1.0869718596    0.5241689094    0.1018414845
C       -1.1399721612   -0.8611969216    0.0116355419
N       -0.0657220776   -1.6074732446   -0.1044099966
C        1.1123978399   -1.0200488264   -0.1368460610
Cl      -2.5554033846    1.4335894429    0.2530010827
H        2.2455106923    0.7974524594   -0.0835548182
H        0.2095989150    2.2409587484    0.1383406605
H       -2.0965512090   -1.3670921445    0.0360203345
H        1.9793361385   -1.6621980328   -0.2331871462
11   
Iteration 5 Energy -705.27761226
C        1.2753918203    0.3627758922   -0.0535384647
C        0.1388235348    1.1479740231    0.0689440362
C       -1.0971920394    0.5256298475    0.1025651615
C       -1.1415950455   -0.8602960588    0.0117951259
N       -0.0655278442   -1.6065341638   -0.1043585290
C        1.1098882105   -1.0128248214   -0.1362041239
Cl      -2.5637560791    1.4433931783    0.2541736125
H        2.2611670395    0.8053133488   -0.0839830025
H        0.2059687040    2.2241497631    0.1374289268
H       -2.0959523916   -1.3691190625    0.0358465268
H        1.9727840907   -1.6604619412   -0.2326692748
11   
Iteration 6 Energy -705.27777062
C        1.2736948076    0.3630332381   -0.0534173324
C        0.1402191668    1.1515827680    0.0691020660
C       -1.0911254140    0.5207489996    0.1018648685
C       -1.1495320641   -0.8641030311    0.0120238303
N       -0.0663883918   -1.6039364772   -0.1041306611
C        1.1130525790   -1.0125576027   -0.1363797172
Cl      -2.5556575418    1.4404827130    0.2534819812
H        2.2592717128    0.8059761836   -0.0838223219
H        0.2056229884    2.2283209454    0.1377314186
H       -2.1061499323   -1.3703500173    0.0363871960
H        1.9769920895   -1.6591977142   -0.2328413332
11   
Iteration 7 Energy -705.27778008
C        1.2700187804    0.3614291064   -0.0533007481
C        0.1396463562    1.1534689378    0.0692641409
C       -1.0911745953    0.5221690326    0.1019636697
C       -1.1464750377   -0.8626105885    0.0119379221
N       -0.0659027578   -1.6039011822   -0.1041579306
C        1.1131919155   -1.0146421588   -0.1365297874
Cl      -2.5566988587    1.4394669534    0.2534770528
H        2.2558912240    0.8038265781   -0.0837599373
H        0.2065199312    2.2301552323    0.1378002020
H       -2.1027755028   -1.3691693705    0.0362605850
H        1.9777585451   -1.6601925354   -0.2329551744
11   
Iteration 8 Energy -705.27778180
C        1.2711267461    0.3618541966   -0.0533398624
C        0.1398066580    1.1528830222    0.0692148447
C       -1.0912614727    0.5217544383    0.1019410013
C       -1.1471833801   -0.8630567240    0.0119509557
N       -0.0659866259   -1.6040387758   -0.1041621136
C        1.1130910554   -1.0141448956   -0.1364896612
Cl      -2.5565999721    1.4398917686    0.2534998144
H        2.2569105554    0.8045200241   -0.0837757644
H        0.2062376344    2.2295918341    0.1377794819
H       -2.1036798696   -1.3693568952    0.0363031367
H        1.9775386711   -1.6598979882   -0.2329218384
11   
Iteration 9 Energy -705.27778180
C        1.2711292459    0.3618657124   -0.0533392345
C        0.1398107084    1.1528665249    0.0692134829
C       -1.0912642557    0.5217421226    0.1019403441
C       -1.1471976109   -0.8630531753    0.0119521032
N       -0.0659801130   -1.6040014532   -0.1041599809
C        1.1130803763   -1.0141449444   -0.1364890816
Cl      -2.5565767098    1.4399084065    0.2534994931
H        2.2569015409    0.8045207391   -0.0837751249
H        0.2062288407    2.2295649502    0.1377781979
H       -2.1036696842   -1.3693730940    0.0363014271
H        1.9775376613   -1.6598957835   -0.2329216316
