19   
Iteration 0 Energy -400.19820326
C       -2.5872202148   -0.6451222662    0.1064288192
C       -1.4058587778    0.2584420322    0.0337318245
C       -1.4026685536    1.6379704919   -0.0213590686
N       -0.1159093623    2.0024281512   -0.0758284114
C        0.6935157126    0.9297702863   -0.0581913636
C       -0.0985037501   -0.1978410337    0.0113378599
C        0.4970570697   -1.4540852583    0.0429275433
C        1.8659289481   -1.6260735352    0.0073040955
C        2.6410561430   -0.4866297492   -0.0621667386
C        2.0729650233    0.7727263020   -0.0947382839
H       -3.4915659703   -0.0180898595    0.0861301264
H       -2.4750696988   -1.2401278468    1.0323515903
H       -2.6499363293   -1.3363689569   -0.7540323708
H       -2.2979277703    2.2628789084   -0.0184995749
H        0.2034605571    2.9894933855   -0.1250982811
H       -0.1509704164   -2.3103219155    0.0971824846
H        2.3020598135   -2.6250961742    0.0335766486
H        3.7276351151   -0.5922347664   -0.0916520906
H        2.6719524614    1.6782817937   -0.1494048245
19   
Iteration 1 Energy -400.20607954
C       -2.6877525071   -0.6682839167    0.1173056425
C       -1.4668463255    0.2148221668    0.0379528998
C       -1.3252902022    1.5614915585   -0.0231261433
N       -0.0396656284    2.0294447602   -0.0815534874
C        0.7549930719    0.9213717803   -0.0615600887
C       -0.1019002168   -0.2196968616    0.0118034130
C        0.4505998194   -1.5086343400    0.0469408901
C        1.8256603969   -1.5306930036    0.0047311130
C        2.6858144019   -0.4239117827   -0.0673218440
C        2.1549272778    0.8413113424   -0.1021163224
H       -3.6016803197   -0.0722652605    0.1101555471
H       -2.6571368134   -1.2835152784    1.0200242200
H       -2.7457291121   -1.3459502131   -0.7389251988
H       -2.1598810997    2.2424408934   -0.0245876642
H        0.2542295565    2.9808114406   -0.1288638264
H       -0.1597769548   -2.4025811912    0.1022745448
H        2.2857310734   -2.5084941384    0.0300587692
H        3.7604744031   -0.5585927457   -0.0955549881
H        2.7732291788    1.7309247793   -0.1576374922
19   
Iteration 2 Energy -400.21090813
C       -2.7330741799   -0.5915817736    0.1184604355
C       -1.4544243685    0.2049967884    0.0357912910
C       -1.4236275044    1.5531239148   -0.0224123371
N       -0.1044698903    1.9576259620   -0.0784902601
C        0.7713398545    0.8972590753   -0.0624415296
C       -0.0611235100   -0.2529314933    0.0100485242
C        0.5530147040   -1.5211255431    0.0427657216
C        1.9285068347   -1.6164134545    0.0045765677
C        2.6904774270   -0.4246000213   -0.0673240927
C        2.1718348748    0.8527623773   -0.1034175212
H       -3.6190773408    0.0371349131    0.1237624933
H       -2.7851844211   -1.2072081028    1.0116534683
H       -2.8177102073   -1.2610966334   -0.7344208415
H       -2.2278540908    2.2660872510   -0.0255314548
H        0.1752837258    2.8932237774   -0.1237581906
H       -0.0476487870   -2.4227751535    0.0971572423
H        2.4212234415   -2.5776273612    0.0284314213
H        3.7640403072   -0.5199725473   -0.0964341440
H        2.7984731306    1.7331180140   -0.1584168096
19   
Iteration 3 Energy -400.21125962
C       -2.7011417586   -0.6049915995    0.1108057814
C       -1.4550593831    0.2240329818    0.0360765572
C       -1.3987180482    1.5802870598   -0.0188229994
N       -0.0991725190    2.0253207149   -0.0816404859
C        0.6829294384    0.9007461835   -0.0591172197
C       -0.0864393665   -0.2633804571    0.0139080400
C        0.5625010733   -1.5069634266    0.0444725589
C        1.9391058458   -1.6242747916    0.0058972794
C        2.7163425242   -0.4514551295   -0.0673361766
C        2.0721962219    0.7722877045   -0.0980140276
H       -3.5882025101    0.0273291798    0.1203332893
H       -2.7293917252   -1.2192953112    1.0130008955
H       -2.7805727259   -1.2801202131   -0.7445607926
H       -2.2065124858    2.2966553494   -0.0207023146
H        0.2065723939    2.9729956413   -0.1306596574
H       -0.0320365462   -2.4093474766    0.0997660360
H        2.4244476565   -2.5917541212    0.0303653598
H        3.7971036831   -0.5141520352   -0.0990901046
H        2.6760482317    1.6660797360   -0.1546820348
19   
Iteration 4 Energy -400.21602408
C       -2.6931225159   -0.6231022573    0.1109486237
C       -1.4619467224    0.2284498593    0.0360330240
C       -1.3999474416    1.5805508920   -0.0188981229
N       -0.0939346265    2.0086319186   -0.0809696142
C        0.7134069004    0.9052641829   -0.0601897544
C       -0.0890699105   -0.2417194116    0.0130524107
C        0.5347987061   -1.4960738174    0.0447956943
C        1.9094922930   -1.6034509040    0.0059219534
C        2.7079034753   -0.4467650087   -0.0671910129
C        2.1049267938    0.7932788563   -0.0997874662
H       -3.5912517228   -0.0055515333    0.1212425534
H       -2.7071771710   -1.2378540999    1.0140655600
H       -2.7621347025   -1.2998608986   -0.7446243742
H       -2.2041057265    2.3010306984   -0.0211765982
H        0.2076666615    2.9583504412   -0.1298541865
H       -0.0667191240   -2.3944099752    0.1000913478
H        2.3861267404   -2.5748216604    0.0307945534
H        3.7867916324   -0.5344934145   -0.0977885756
H        2.7182964606    1.6825461214   -0.1564660314
19   
Iteration 5 Energy -400.21512034
C       -2.6783860307   -0.6276327368    0.1117884787
C       -1.4427367126    0.2185213910    0.0359249159
C       -1.3810409984    1.5675789282   -0.0229113522
N       -0.0799088742    2.0074744434   -0.0793074420
C        0.7330084099    0.9093048813   -0.0605953404
C       -0.0715484785   -0.2465382334    0.0113670651
C        0.5112078912   -1.5218159921    0.0448739568
C        1.8831123805   -1.6101615882    0.0056160918
C        2.6428609202   -0.4300046512   -0.0659406373
C        2.1282766517    0.8457026702   -0.1014966592
H       -3.5772069785   -0.0098968650    0.1195404004
H       -2.6859428156   -1.2384234572    1.0175053053
H       -2.7486449314   -1.3061833126   -0.7414069192
H       -2.1921054681    2.2785953210   -0.0271546181
H        0.2125723446    2.9566848587   -0.1256674992
H       -0.0988615587   -2.4151798412    0.1002544423
H        2.3726662488   -2.5749839259    0.0295281589
H        3.7190535602   -0.5319831968   -0.0952516532
H        2.7536244395    1.7289412960   -0.1566667102
19   
Iteration 6 Energy -400.21708944
C       -2.6840521280   -0.6289291372    0.1118598320
C       -1.4529102223    0.2235732556    0.0360608547
C       -1.3950606333    1.5737691888   -0.0225857884
N       -0.0873256554    1.9962284235   -0.0786530295
C        0.7360687596    0.9057662897   -0.0605314273
C       -0.0793561988   -0.2361373842    0.0112352250
C        0.5099773234   -1.5072620028    0.0443752885
C        1.8852304127   -1.5924985283    0.0048620005
C        2.6822132601   -0.4365569830   -0.0669062004
C        2.1318013462    0.8260188894   -0.1008170593
H       -3.5857101347   -0.0154894785    0.1199032043
H       -2.6880072501   -1.2398079121    1.0176098898
H       -2.7512532669   -1.3078440208   -0.7413504761
H       -2.2033517756    2.2883171130   -0.0270056822
H        0.2075761603    2.9446932614   -0.1251166487
H       -0.0980788936   -2.4016030005    0.0997581348
H        2.3625043331   -2.5630276963    0.0293877767
H        3.7593457579   -0.5417900611   -0.0961435190
H        2.7503888054    1.7125797729   -0.1559423916
19   
Iteration 7 Energy -400.21692690
C       -2.6845978508   -0.6397692041    0.1105302561
C       -1.4654149726    0.2308215826    0.0370407977
C       -1.3934113575    1.5814020821   -0.0185806546
N       -0.0867478419    2.0086438517   -0.0806374444
C        0.7316946895    0.9140198506   -0.0607454586
C       -0.0890170421   -0.2214695838    0.0126027542
C        0.5168998224   -1.4848765926    0.0452691593
C        1.8901789119   -1.6017970385    0.0062871624
C        2.6873768935   -0.4454050975   -0.0669526534
C        2.1253113419    0.8131762556   -0.1012003363
H       -3.5927691088   -0.0367189750    0.1197133529
H       -2.6841213799   -1.2536442990    1.0144766037
H       -2.7437111792   -1.3179854419   -0.7442995016
H       -2.1987422928    2.2994299589   -0.0212911446
H        0.2106151115    2.9578996088   -0.1297078345
H       -0.0951274295   -2.3756386874    0.1012630227
H        2.3594253817   -2.5768476962    0.0314257529
H        3.7645154136   -0.5480224239   -0.0972439989
H        2.7476428892    1.6967818389   -0.1579498509
19   
Iteration 8 Energy -400.21718475
C       -2.6859340456   -0.6327054108    0.1103431990
C       -1.4598619124    0.2273848936    0.0369921236
C       -1.3951527701    1.5782259776   -0.0185428734
N       -0.0884423805    2.0029716499   -0.0802821950
C        0.7312788600    0.9090250385   -0.0605221877
C       -0.0850344707   -0.2307661867    0.0128075718
C        0.5169946581   -1.4960620336    0.0456644510
C        1.8909681858   -1.5976263673    0.0060463038
C        2.6887981574   -0.4418274019   -0.0671468321
C        2.1252896173    0.8153971882   -0.1012603988
H       -3.5894483184   -0.0225202189    0.1190126093
H       -2.6902089781   -1.2460164410    1.0145600738
H       -2.7498349185   -1.3104669420   -0.7443503469
H       -2.2018789355    2.2948654138   -0.0212357922
H        0.2086458760    2.9520630273   -0.1292621790
H       -0.0917485978   -2.3895192899    0.1016521107
H        2.3647201221   -2.5702111234    0.0309346941
H        3.7660616608   -0.5433353379   -0.0974601264
H        2.7447881900    1.7011235540   -0.1579502215
19   
Iteration 9 Energy -400.21721736
C       -2.6852437801   -0.6310240937    0.1120958943
C       -1.4571094780    0.2259112033    0.0365477859
C       -1.3951553540    1.5765639442   -0.0226358478
N       -0.0880713002    2.0001852170   -0.0784834286
C        0.7329548933    0.9075053044   -0.0604844351
C       -0.0831323668   -0.2329527360    0.0113242062
C        0.5141178007   -1.5006463562    0.0440974010
C        1.8885555200   -1.5947801912    0.0047796361
C        2.6874504440   -0.4398789511   -0.0671619808
C        2.1274799956    0.8189037298   -0.1005631124
H       -3.5880135415   -0.0194694368    0.1194817243
H       -2.6893172143   -1.2421404517    1.0177978375
H       -2.7502424011   -1.3103698456   -0.7411347050
H       -2.2028641129    2.2919268333   -0.0273255910
H        0.2084290363    2.9489947788   -0.1250888370
H       -0.0942226325   -2.3944442550    0.0996489050
H        2.3635607232   -2.5667521642    0.0294417515
H        3.7646182736   -0.5428551705   -0.0966400053
H        2.7462054948    1.7053226307   -0.1556972147
19   
Iteration 10 Energy -400.21721982
C       -2.6857290869   -0.6303378766    0.1103903060
C       -1.4569026872    0.2258192096    0.0371969221
C       -1.3953243809    1.5767283441   -0.0189593222
N       -0.0883773386    2.0002433511   -0.0797531166
C        0.7321255829    0.9070586038   -0.0604171426
C       -0.0830485976   -0.2339350970    0.0127188045
C        0.5150667208   -1.5012946956    0.0457223103
C        1.8894887874   -1.5949810901    0.0057234282
C        2.6881329232   -0.4399138237   -0.0673338335
C        2.1265369469    0.8181062829   -0.1013093371
H       -3.5879341204   -0.0180657849    0.1180199482
H       -2.6911172930   -1.2426801064    1.0152176586
H       -2.7506586819   -1.3085343088   -0.7437962956
H       -2.2029707442    2.2922230772   -0.0219028991
H        0.2082985127    2.9491076586   -0.1284183437
H       -0.0927669016   -2.3953954957    0.1017865915
H        2.3649365938   -2.5667355019    0.0304712461
H        3.7653190932   -0.5420870247   -0.0975943306
H        2.7449246715    1.7046742674   -0.1577626105
19   
Iteration 11 Energy -400.21722059
C       -2.6857275927   -0.6304939678    0.1111490186
C       -1.4571348012    0.2259327829    0.0370093043
C       -1.3953849787    1.5767615056   -0.0204706834
N       -0.0883597308    2.0004547879   -0.0791535905
C        0.7321138649    0.9072208100   -0.0604347609
C       -0.0832121871   -0.2336764742    0.0121498039
C        0.5151783181   -1.5009051257    0.0450185761
C        1.8895645956   -1.5952053576    0.0052910146
C        2.6881596838   -0.4400489975   -0.0673177942
C        2.1265191029    0.8179498912   -0.1010003060
H       -3.5880647762   -0.0184257081    0.1183272191
H       -2.6910635873   -1.2422100462    1.0164134957
H       -2.7504612602   -1.3093110901   -0.7425417501
H       -2.2029763365    2.2923148409   -0.0241674827
H        0.2083399660    2.9493485006   -0.1269669185
H       -0.0927522871   -2.3949564352    0.1008826322
H        2.3648649629   -2.5670268144    0.0299944436
H        3.7653602477   -0.5421781762   -0.0972875459
H        2.7450367960    1.7044550632   -0.1568946917
19   
Iteration 12 Energy -400.21722065
C       -2.6856270132   -0.6306270840    0.1110367566
C       -1.4571313170    0.2259542478    0.0370772163
C       -1.3953306785    1.5767689421   -0.0202226167
N       -0.0883047414    2.0004107255   -0.0791937959
C        0.7322688305    0.9072838916   -0.0604303155
C       -0.0832021634   -0.2335045183    0.0122242911
C        0.5149749161   -1.5008274751    0.0451064421
C        1.8893573116   -1.5951273756    0.0053242326
C        2.6880113803   -0.4400259511   -0.0673447655
C        2.1266960928    0.8181169010   -0.1010587599
H       -3.5880709932   -0.0186914642    0.1180085908
H       -2.6909421589   -1.2422485952    1.0163674087
H       -2.7501275304   -1.3095335971   -0.7426015197
H       -2.2029242112    2.2923115244   -0.0238054258
H        0.2083456370    2.9492757103   -0.1271339391
H       -0.0930434841   -2.3948189802    0.1010066229
H        2.3645896233   -2.5669828534    0.0300253660
H        3.7652030537   -0.5423226432   -0.0973619826
H        2.7452574459    1.7045885842   -0.1570238221
