12   
Iteration 0 Energy -489.27956233
C        1.5504065228   -0.5376186034    0.2356868724
O        0.9823110375    0.4935653785   -0.4446696741
C       -0.3362600917    0.4200057933   -0.7584260446
C       -1.3038503188    0.3048812749    0.3697412132
F       -1.1378798451   -0.8065833774    1.1641928803
F       -1.3731798572    1.4701557669    1.1186362470
F       -2.5755425808    0.1654893510   -0.2081107124
H        1.1289338133   -0.7634290235    1.2344539241
H        1.6202177660   -1.4843795847   -0.3558307478
H        2.6270619088   -0.2656521564    0.4376955894
H       -0.5892081585    1.3788519913   -1.2998374674
H       -0.5930102015   -0.3752868105   -1.4935320802
12   
Iteration 1 Energy -489.30207417
C        1.6528631961   -0.5580071424    0.2329150111
O        0.9768937724    0.4847819745   -0.3806188277
C       -0.3469852043    0.4038109742   -0.7418361700
C       -1.3955242083    0.3347931832    0.3434901565
F       -1.3041682483   -0.6807672077    1.1639678710
F       -1.4281674003    1.4029126519    1.1028324917
F       -2.5968966667    0.2345844353   -0.2122258812
H        1.2366172877   -0.8247088195    1.1992036274
H        1.6664334188   -1.4529357413   -0.3978892029
H        2.6839253341   -0.2499813649    0.3908109956
H       -0.5896274986    1.3218684929   -1.2656308494
H       -0.5553637880   -0.4163514361   -1.4350192222
12   
Iteration 2 Energy -489.30490387
C        1.5878596760   -0.5524559655    0.2424339767
O        0.9555157008    0.5391732246   -0.3506700340
C       -0.3457248838    0.4201614924   -0.7632875977
C       -1.3585544026    0.3263026430    0.3555438765
F       -1.1452854355   -0.6971876953    1.1467124837
F       -1.3525800689    1.4037800957    1.0955620908
F       -2.5453124028    0.1937219351   -0.1908219421
H        1.1212588762   -0.8330664504    1.1843872975
H        1.5840860583   -1.4208180864   -0.4199875572
H        2.6102321495   -0.2545873488    0.4288843621
H       -0.6035364947    1.3162074842   -1.3136376792
H       -0.5079587777   -0.4412313286   -1.4151192770
12   
Iteration 3 Energy -489.30644222
C        1.6180076941   -0.5597833584    0.2307009832
O        0.9447395408    0.5493067327   -0.2917584265
C       -0.3454142305    0.4014630154   -0.7357581783
C       -1.3976125898    0.3474370009    0.3575523321
F       -1.2424610760   -0.6814884522    1.1705753187
F       -1.3992080230    1.4441835385    1.0838254804
F       -2.5811917299    0.2306560164   -0.2093954961
H        1.1983160765   -0.9051045257    1.1742253973
H        1.6197584937   -1.3920306481   -0.4805842254
H        2.6423482386   -0.2385035336    0.3973656080
H       -0.5795192674    1.2857742122   -1.3271861995
H       -0.4777631324   -0.4819099982   -1.3695625938
12   
Iteration 4 Energy -489.30711153
C        1.6241213170   -0.5575352533    0.2215383433
O        0.9311509077    0.5723668194   -0.2315898113
C       -0.3392573648    0.3959867476   -0.7250803631
C       -1.4073151862    0.3621111805    0.3505217604
F       -1.2605206168   -0.6535680162    1.1834585119
F       -1.4167095137    1.4597403779    1.0736840453
F       -2.5989451375    0.2388678321   -0.2017900006
H        1.2050284740   -0.9567540085    1.1452124811
H        1.6214559104   -1.3461716363   -0.5382739375
H        2.6523380113   -0.2490760857    0.4029464969
H       -0.5723915348    1.2517576701   -1.3599056613
H       -0.4389552718   -0.5177256274   -1.3207218651
12   
Iteration 5 Energy -489.30729550
C        1.6345239405   -0.5596996418    0.2137982261
O        0.9150544520    0.5731701190   -0.1863533890
C       -0.3435271582    0.3871572134   -0.7090016961
C       -1.4223486430    0.3755302116    0.3506525575
F       -1.2853134215   -0.6357330240    1.1889903626
F       -1.4228945179    1.4784739277    1.0618731947
F       -2.6059629958    0.2579207019   -0.2176823052
H        1.2298413368   -1.0031068759    1.1229708099
H        1.6444414446   -1.3159313500   -0.5765156622
H        2.6558978857   -0.2395076155    0.4017726710
H       -0.5686649904    1.2225468632   -1.3695408228
H       -0.4310473381   -0.5408205295   -1.2809639466
12   
Iteration 6 Energy -489.30731972
C        1.6346000767   -0.5601656532    0.2107384373
O        0.9126115337    0.5712717274   -0.1809563597
C       -0.3441865623    0.3865169507   -0.7073690452
C       -1.4217046755    0.3785283333    0.3532309383
F       -1.2846441554   -0.6296615280    1.1941290135
F       -1.4265242726    1.4838496086    1.0598958471
F       -2.6045577385    0.2584873253   -0.2166527410
H        1.2251087153   -1.0159899729    1.1123787048
H        1.6557936338   -1.3085363334   -0.5866107019
H        2.6524720434   -0.2361528610    0.4105941312
H       -0.5666740517    1.2164404110   -1.3759507588
H       -0.4322945522   -0.5445880078   -1.2734274656
12   
Iteration 7 Energy -489.30733525
C        1.6359694422   -0.5609322378    0.2069999263
O        0.9109626511    0.5691016718   -0.1764855047
C       -0.3450364812    0.3840789436   -0.7044110421
C       -1.4234368641    0.3827732880    0.3553532173
F       -1.2836424145   -0.6186899595    1.2026703356
F       -1.4298918751    1.4926520558    1.0546211384
F       -2.6064922788    0.2568840917   -0.2151564458
H        1.2188864748   -1.0346710307    1.0964426636
H        1.6733524951   -1.2977663055   -0.6006894552
H        2.6489906246   -0.2330423176    0.4251513645
H       -0.5651014240    1.2097149595   -1.3791391066
H       -0.4345603556   -0.5501031593   -1.2653570912
12   
Iteration 8 Energy -489.30735912
C        1.6388459121   -0.5635874834    0.1991458706
O        0.9077961793    0.5657606951   -0.1682892734
C       -0.3467123648    0.3784263554   -0.6987861527
C       -1.4261856757    0.3914621723    0.3599041859
F       -1.2832538892   -0.5951638309    1.2230281575
F       -1.4376823469    1.5128497856    1.0402304594
F       -2.6083389666    0.2519263223   -0.2097175065
H        1.2052087205   -1.0742966455    1.0601675271
H        1.7117447865   -1.2735649156   -0.6303905088
H        2.6399746692   -0.2285105473    0.4575957076
H       -0.5634498615    1.1966364621   -1.3835763293
H       -0.4379471682   -0.5619383700   -1.2493121374
12   
Iteration 9 Energy -489.30738840
C        1.6450107097   -0.5699826104    0.1846983759
O        0.9023250731    0.5597770233   -0.1543192138
C       -0.3503123912    0.3677257308   -0.6888679089
C       -1.4313678022    0.4067617945    0.3676473710
F       -1.2819177453   -0.5499243008    1.2627276798
F       -1.4508080338    1.5498154760    1.0109986994
F       -2.6123586178    0.2411989387   -0.1977509530
H        1.1803450869   -1.1448795812    0.9872494289
H        1.7849362753   -1.2247725363   -0.6812304817
H        2.6200831369   -0.2258970595    0.5197841787
H       -0.5623297025    1.1732004266   -1.3904745704
H       -0.4436059944   -0.5830233017   -1.2204626058
12   
Iteration 10 Energy -489.30739769
C        1.6460249730   -0.5723977925    0.1816563547
O        0.9013398358    0.5593217652   -0.1527734415
C       -0.3512749936    0.3654131802   -0.6876213853
C       -1.4313667615    0.4100598325    0.3693356557
F       -1.2787652628   -0.5388770214    1.2724457229
F       -1.4532338159    1.5587338492    1.0031123877
F       -2.6123239095    0.2363290156   -0.1925410427
H        1.1715094380   -1.1601458836    0.9686111710
H        1.8028277032   -1.2126419421   -0.6919557913
H        2.6134607723   -0.2272268522    0.5369153946
H       -0.5635552875    1.1686738179   -1.3916627057
H       -0.4446426967   -0.5872419689   -1.2155223200
12   
Iteration 11 Energy -489.30740008
C        1.6453508781   -0.5731203157    0.1825526211
O        0.9019520642    0.5604294110   -0.1549570088
C       -0.3512298163    0.3663163041   -0.6889297638
C       -1.4302597325    0.4088575098    0.3689532806
F       -1.2758868118   -0.5401988718    1.2722022034
F       -1.4521775553    1.5572910890    1.0031568263
F       -2.6116614339    0.2347244536   -0.1912963688
H        1.1690679615   -1.1568716486    0.9709792778
H        1.8006762364   -1.2146988033   -0.6900037178
H        2.6130433010   -0.2280019238    0.5368689515
H       -0.5647185711    1.1707231085   -1.3913399539
H       -0.4441565256   -0.5854503128   -1.2181863477
12   
Iteration 12 Energy -489.30740013
C        1.6453635318   -0.5731605712    0.1824921577
O        0.9018906372    0.5604412313   -0.1546409949
C       -0.3511849399    0.3662199561   -0.6887641609
C       -1.4302471471    0.4090852824    0.3690308297
F       -1.2759551967   -0.5398942222    1.2722714871
F       -1.4524202953    1.5576156958    1.0031311159
F       -2.6115047179    0.2344845800   -0.1914044231
H        1.1690049978   -1.1572231889    0.9706536304
H        1.8006925492   -1.2143437047   -0.6903410826
H        2.6130222188   -0.2280631487    0.5369057737
H       -0.5646580626    1.1704383339   -1.3913439849
H       -0.4440035806   -0.5856002438   -1.2179903481
